ITEM: TIMESTEP
0          0
ITEM: NUMBER OF ATOMS
1024
ITEM: BOX BOUNDS
0 22.8424
0 22.8424
0 22.8424
ITEM: ATOMS id type x y z
1 1 0 0 0 
2 1 1.42765 1.42765 1.42765 
3 1 2.8553 0 0 
4 1 4.28295 1.42765 1.42765 
5 1 5.7106 0 0 
6 1 7.13825 1.42765 1.42765 
7 1 8.5659 0 0 
8 1 9.99355 1.42765 1.42765 
9 1 11.4212 0 0 
10 1 12.8489 1.42765 1.42765 
11 1 14.2765 0 0 
12 1 15.7042 1.42765 1.42765 
13 1 17.1318 0 0 
14 1 18.5595 1.42765 1.42765 
15 1 19.9871 0 0 
16 1 21.4148 1.42765 1.42765 
17 1 0 2.8553 0 
18 1 1.42765 4.28295 1.42765 
19 1 2.8553 2.8553 0 
20 1 4.28295 4.28295 1.42765 
21 1 5.7106 2.8553 0 
22 1 7.13825 4.28295 1.42765 
23 1 8.5659 2.8553 0 
24 1 9.99355 4.28295 1.42765 
25 1 11.4212 2.8553 0 
26 1 12.8489 4.28295 1.42765 
27 1 14.2765 2.8553 0 
28 1 15.7042 4.28295 1.42765 
29 1 17.1318 2.8553 0 
30 1 18.5595 4.28295 1.42765 
31 1 19.9871 2.8553 0 
32 1 21.4148 4.28295 1.42765 
33 1 0 5.7106 0 
34 1 1.42765 7.13825 1.42765 
35 1 2.8553 5.7106 0 
36 1 4.28295 7.13825 1.42765 
37 1 5.7106 5.7106 0 
38 1 7.13825 7.13825 1.42765 
39 1 8.5659 5.7106 0 
40 1 9.99355 7.13825 1.42765 
41 1 11.4212 5.7106 0 
42 1 12.8489 7.13825 1.42765 
43 1 14.2765 5.7106 0 
44 1 15.7042 7.13825 1.42765 
45 1 17.1318 5.7106 0 
46 1 18.5595 7.13825 1.42765 
47 1 19.9871 5.7106 0 
48 1 21.4148 7.13825 1.42765 
49 1 0 8.5659 0 
50 1 1.42765 9.99355 1.42765 
51 1 2.8553 8.5659 0 
52 1 4.28295 9.99355 1.42765 
53 1 5.7106 8.5659 0 
54 1 7.13825 9.99355 1.42765 
55 1 8.5659 8.5659 0 
56 1 9.99355 9.99355 1.42765 
57 1 11.4212 8.5659 0 
58 1 12.8489 9.99355 1.42765 
59 1 14.2765 8.5659 0 
60 1 15.7042 9.99355 1.42765 
61 1 17.1318 8.5659 0 
62 1 18.5595 9.99355 1.42765 
63 1 19.9871 8.5659 0 
64 1 21.4148 9.99355 1.42765 
65 1 0 11.4212 0 
66 1 1.42765 12.8489 1.42765 
67 1 2.8553 11.4212 0 
68 1 4.28295 12.8489 1.42765 
69 1 5.7106 11.4212 0 
70 1 7.13825 12.8489 1.42765 
71 1 8.5659 11.4212 0 
72 1 9.99355 12.8489 1.42765 
73 1 11.4212 11.4212 0 
74 1 12.8489 12.8489 1.42765 
75 1 14.2765 11.4212 0 
76 1 15.7042 12.8489 1.42765 
77 1 17.1318 11.4212 0 
78 1 18.5595 12.8489 1.42765 
79 1 19.9871 11.4212 0 
80 1 21.4148 12.8489 1.42765 
81 1 0 14.2765 0 
82 1 1.42765 15.7042 1.42765 
83 1 2.8553 14.2765 0 
84 1 4.28295 15.7042 1.42765 
85 1 5.7106 14.2765 0 
86 1 7.13825 15.7042 1.42765 
87 1 8.5659 14.2765 0 
88 1 9.99355 15.7042 1.42765 
89 1 11.4212 14.2765 0 
90 1 12.8489 15.7042 1.42765 
91 1 14.2765 14.2765 0 
92 1 15.7042 15.7042 1.42765 
93 1 17.1318 14.2765 0 
94 1 18.5595 15.7042 1.42765 
95 1 19.9871 14.2765 0 
96 1 21.4148 15.7042 1.42765 
97 1 0 17.1318 0 
98 1 1.42765 18.5595 1.42765 
99 1 2.8553 17.1318 0 
100 1 4.28295 18.5595 1.42765 
101 1 5.7106 17.1318 0 
102 1 7.13825 18.5595 1.42765 
103 1 8.5659 17.1318 0 
104 1 9.99355 18.5595 1.42765 
105 1 11.4212 17.1318 0 
106 1 12.8489 18.5595 1.42765 
107 1 14.2765 17.1318 0 
108 1 15.7042 18.5595 1.42765 
109 1 17.1318 17.1318 0 
110 1 18.5595 18.5595 1.42765 
111 1 19.9871 17.1318 0 
112 1 21.4148 18.5595 1.42765 
113 1 0 19.9871 0 
114 1 1.42765 21.4148 1.42765 
115 1 2.8553 19.9871 0 
116 1 4.28295 21.4148 1.42765 
117 1 5.7106 19.9871 0 
118 1 7.13825 21.4148 1.42765 
119 1 8.5659 19.9871 0 
120 1 9.99355 21.4148 1.42765 
121 1 11.4212 19.9871 0 
122 1 12.8489 21.4148 1.42765 
123 1 14.2765 19.9871 0 
124 1 15.7042 21.4148 1.42765 
125 1 17.1318 19.9871 0 
126 1 18.5595 21.4148 1.42765 
127 1 19.9871 19.9871 0 
128 1 21.4148 21.4148 1.42765 
129 1 0 0 2.8553 
130 1 1.42765 1.42765 4.28295 
131 1 2.8553 0 2.8553 
132 1 4.28295 1.42765 4.28295 
133 1 5.7106 0 2.8553 
134 1 7.13825 1.42765 4.28295 
135 1 8.5659 0 2.8553 
136 1 9.99355 1.42765 4.28295 
137 1 11.4212 0 2.8553 
138 1 12.8489 1.42765 4.28295 
139 1 14.2765 0 2.8553 
140 1 15.7042 1.42765 4.28295 
141 1 17.1318 0 2.8553 
142 1 18.5595 1.42765 4.28295 
143 1 19.9871 0 2.8553 
144 1 21.4148 1.42765 4.28295 
145 1 0 2.8553 2.8553 
146 1 1.42765 4.28295 4.28295 
147 1 2.8553 2.8553 2.8553 
148 1 4.28295 4.28295 4.28295 
149 1 5.7106 2.8553 2.8553 
150 1 7.13825 4.28295 4.28295 
151 1 8.5659 2.8553 2.8553 
152 1 9.99355 4.28295 4.28295 
153 1 11.4212 2.8553 2.8553 
154 1 12.8489 4.28295 4.28295 
155 1 14.2765 2.8553 2.8553 
156 1 15.7042 4.28295 4.28295 
157 1 17.1318 2.8553 2.8553 
158 1 18.5595 4.28295 4.28295 
159 1 19.9871 2.8553 2.8553 
160 1 21.4148 4.28295 4.28295 
161 1 0 5.7106 2.8553 
162 1 1.42765 7.13825 4.28295 
163 1 2.8553 5.7106 2.8553 
164 1 4.28295 7.13825 4.28295 
165 1 5.7106 5.7106 2.8553 
166 1 7.13825 7.13825 4.28295 
167 1 8.5659 5.7106 2.8553 
168 1 9.99355 7.13825 4.28295 
169 1 11.4212 5.7106 2.8553 
170 1 12.8489 7.13825 4.28295 
171 1 14.2765 5.7106 2.8553 
172 1 15.7042 7.13825 4.28295 
173 1 17.1318 5.7106 2.8553 
174 1 18.5595 7.13825 4.28295 
175 1 19.9871 5.7106 2.8553 
176 1 21.4148 7.13825 4.28295 
177 1 0 8.5659 2.8553 
178 1 1.42765 9.99355 4.28295 
179 1 2.8553 8.5659 2.8553 
180 1 4.28295 9.99355 4.28295 
181 1 5.7106 8.5659 2.8553 
182 1 7.13825 9.99355 4.28295 
183 1 8.5659 8.5659 2.8553 
184 1 9.99355 9.99355 4.28295 
185 1 11.4212 8.5659 2.8553 
186 1 12.8489 9.99355 4.28295 
187 1 14.2765 8.5659 2.8553 
188 1 15.7042 9.99355 4.28295 
189 1 17.1318 8.5659 2.8553 
190 1 18.5595 9.99355 4.28295 
191 1 19.9871 8.5659 2.8553 
192 1 21.4148 9.99355 4.28295 
193 1 0 11.4212 2.8553 
194 1 1.42765 12.8489 4.28295 
195 1 2.8553 11.4212 2.8553 
196 1 4.28295 12.8489 4.28295 
197 1 5.7106 11.4212 2.8553 
198 1 7.13825 12.8489 4.28295 
199 1 8.5659 11.4212 2.8553 
200 1 9.99355 12.8489 4.28295 
201 1 11.4212 11.4212 2.8553 
202 1 12.8489 12.8489 4.28295 
203 1 14.2765 11.4212 2.8553 
204 1 15.7042 12.8489 4.28295 
205 1 17.1318 11.4212 2.8553 
206 1 18.5595 12.8489 4.28295 
207 1 19.9871 11.4212 2.8553 
208 1 21.4148 12.8489 4.28295 
209 1 0 14.2765 2.8553 
210 1 1.42765 15.7042 4.28295 
211 1 2.8553 14.2765 2.8553 
212 1 4.28295 15.7042 4.28295 
213 1 5.7106 14.2765 2.8553 
214 1 7.13825 15.7042 4.28295 
215 1 8.5659 14.2765 2.8553 
216 1 9.99355 15.7042 4.28295 
217 1 11.4212 14.2765 2.8553 
218 1 12.8489 15.7042 4.28295 
219 1 14.2765 14.2765 2.8553 
220 1 15.7042 15.7042 4.28295 
221 1 17.1318 14.2765 2.8553 
222 1 18.5595 15.7042 4.28295 
223 1 19.9871 14.2765 2.8553 
224 1 21.4148 15.7042 4.28295 
225 1 0 17.1318 2.8553 
226 1 1.42765 18.5595 4.28295 
227 1 2.8553 17.1318 2.8553 
228 1 4.28295 18.5595 4.28295 
229 1 5.7106 17.1318 2.8553 
230 1 7.13825 18.5595 4.28295 
231 1 8.5659 17.1318 2.8553 
232 1 9.99355 18.5595 4.28295 
233 1 11.4212 17.1318 2.8553 
234 1 12.8489 18.5595 4.28295 
235 1 14.2765 17.1318 2.8553 
236 1 15.7042 18.5595 4.28295 
237 1 17.1318 17.1318 2.8553 
238 1 18.5595 18.5595 4.28295 
239 1 19.9871 17.1318 2.8553 
240 1 21.4148 18.5595 4.28295 
241 1 0 19.9871 2.8553 
242 1 1.42765 21.4148 4.28295 
243 1 2.8553 19.9871 2.8553 
244 1 4.28295 21.4148 4.28295 
245 1 5.7106 19.9871 2.8553 
246 1 7.13825 21.4148 4.28295 
247 1 8.5659 19.9871 2.8553 
248 1 9.99355 21.4148 4.28295 
249 1 11.4212 19.9871 2.8553 
250 1 12.8489 21.4148 4.28295 
251 1 14.2765 19.9871 2.8553 
252 1 15.7042 21.4148 4.28295 
253 1 17.1318 19.9871 2.8553 
254 1 18.5595 21.4148 4.28295 
255 1 19.9871 19.9871 2.8553 
256 1 21.4148 21.4148 4.28295 
257 1 0 0 5.7106 
258 1 1.42765 1.42765 7.13825 
259 1 2.8553 0 5.7106 
260 1 4.28295 1.42765 7.13825 
261 1 5.7106 0 5.7106 
262 1 7.13825 1.42765 7.13825 
263 1 8.5659 0 5.7106 
264 1 9.99355 1.42765 7.13825 
265 1 11.4212 0 5.7106 
266 1 12.8489 1.42765 7.13825 
267 1 14.2765 0 5.7106 
268 1 15.7042 1.42765 7.13825 
269 1 17.1318 0 5.7106 
270 1 18.5595 1.42765 7.13825 
271 1 19.9871 0 5.7106 
272 1 21.4148 1.42765 7.13825 
273 1 0 2.8553 5.7106 
274 1 1.42765 4.28295 7.13825 
275 1 2.8553 2.8553 5.7106 
276 1 4.28295 4.28295 7.13825 
277 1 5.7106 2.8553 5.7106 
278 1 7.13825 4.28295 7.13825 
279 1 8.5659 2.8553 5.7106 
280 1 9.99355 4.28295 7.13825 
281 1 11.4212 2.8553 5.7106 
282 1 12.8489 4.28295 7.13825 
283 1 14.2765 2.8553 5.7106 
284 1 15.7042 4.28295 7.13825 
285 1 17.1318 2.8553 5.7106 
286 1 18.5595 4.28295 7.13825 
287 1 19.9871 2.8553 5.7106 
288 1 21.4148 4.28295 7.13825 
289 1 0 5.7106 5.7106 
290 1 1.42765 7.13825 7.13825 
291 1 2.8553 5.7106 5.7106 
292 1 4.28295 7.13825 7.13825 
293 1 5.7106 5.7106 5.7106 
294 1 7.13825 7.13825 7.13825 
295 1 8.5659 5.7106 5.7106 
296 1 9.99355 7.13825 7.13825 
297 1 11.4212 5.7106 5.7106 
298 1 12.8489 7.13825 7.13825 
299 1 14.2765 5.7106 5.7106 
300 1 15.7042 7.13825 7.13825 
301 1 17.1318 5.7106 5.7106 
302 1 18.5595 7.13825 7.13825 
303 1 19.9871 5.7106 5.7106 
304 1 21.4148 7.13825 7.13825 
305 1 0 8.5659 5.7106 
306 1 1.42765 9.99355 7.13825 
307 1 2.8553 8.5659 5.7106 
308 1 4.28295 9.99355 7.13825 
309 1 5.7106 8.5659 5.7106 
310 1 7.13825 9.99355 7.13825 
311 1 8.5659 8.5659 5.7106 
312 1 9.99355 9.99355 7.13825 
313 1 11.4212 8.5659 5.7106 
314 1 12.8489 9.99355 7.13825 
315 1 14.2765 8.5659 5.7106 
316 1 15.7042 9.99355 7.13825 
317 1 17.1318 8.5659 5.7106 
318 1 18.5595 9.99355 7.13825 
319 1 19.9871 8.5659 5.7106 
320 1 21.4148 9.99355 7.13825 
321 1 0 11.4212 5.7106 
322 1 1.42765 12.8489 7.13825 
323 1 2.8553 11.4212 5.7106 
324 1 4.28295 12.8489 7.13825 
325 1 5.7106 11.4212 5.7106 
326 1 7.13825 12.8489 7.13825 
327 1 8.5659 11.4212 5.7106 
328 1 9.99355 12.8489 7.13825 
329 1 11.4212 11.4212 5.7106 
330 1 12.8489 12.8489 7.13825 
331 1 14.2765 11.4212 5.7106 
332 1 15.7042 12.8489 7.13825 
333 1 17.1318 11.4212 5.7106 
334 1 18.5595 12.8489 7.13825 
335 1 19.9871 11.4212 5.7106 
336 1 21.4148 12.8489 7.13825 
337 1 0 14.2765 5.7106 
338 1 1.42765 15.7042 7.13825 
339 1 2.8553 14.2765 5.7106 
340 1 4.28295 15.7042 7.13825 
341 1 5.7106 14.2765 5.7106 
342 1 7.13825 15.7042 7.13825 
343 1 8.5659 14.2765 5.7106 
344 1 9.99355 15.7042 7.13825 
345 1 11.4212 14.2765 5.7106 
346 1 12.8489 15.7042 7.13825 
347 1 14.2765 14.2765 5.7106 
348 1 15.7042 15.7042 7.13825 
349 1 17.1318 14.2765 5.7106 
350 1 18.5595 15.7042 7.13825 
351 1 19.9871 14.2765 5.7106 
352 1 21.4148 15.7042 7.13825 
353 1 0 17.1318 5.7106 
354 1 1.42765 18.5595 7.13825 
355 1 2.8553 17.1318 5.7106 
356 1 4.28295 18.5595 7.13825 
357 1 5.7106 17.1318 5.7106 
358 1 7.13825 18.5595 7.13825 
359 1 8.5659 17.1318 5.7106 
360 1 9.99355 18.5595 7.13825 
361 1 11.4212 17.1318 5.7106 
362 1 12.8489 18.5595 7.13825 
363 1 14.2765 17.1318 5.7106 
364 1 15.7042 18.5595 7.13825 
365 1 17.1318 17.1318 5.7106 
366 1 18.5595 18.5595 7.13825 
367 1 19.9871 17.1318 5.7106 
368 1 21.4148 18.5595 7.13825 
369 1 0 19.9871 5.7106 
370 1 1.42765 21.4148 7.13825 
371 1 2.8553 19.9871 5.7106 
372 1 4.28295 21.4148 7.13825 
373 1 5.7106 19.9871 5.7106 
374 1 7.13825 21.4148 7.13825 
375 1 8.5659 19.9871 5.7106 
376 1 9.99355 21.4148 7.13825 
377 1 11.4212 19.9871 5.7106 
378 1 12.8489 21.4148 7.13825 
379 1 14.2765 19.9871 5.7106 
380 1 15.7042 21.4148 7.13825 
381 1 17.1318 19.9871 5.7106 
382 1 18.5595 21.4148 7.13825 
383 1 19.9871 19.9871 5.7106 
384 1 21.4148 21.4148 7.13825 
385 1 0 0 8.5659 
386 1 1.42765 1.42765 9.99355 
387 1 2.8553 0 8.5659 
388 1 4.28295 1.42765 9.99355 
389 1 5.7106 0 8.5659 
390 1 7.13825 1.42765 9.99355 
391 1 8.5659 0 8.5659 
392 1 9.99355 1.42765 9.99355 
393 1 11.4212 0 8.5659 
394 1 12.8489 1.42765 9.99355 
395 1 14.2765 0 8.5659 
396 1 15.7042 1.42765 9.99355 
397 1 17.1318 0 8.5659 
398 1 18.5595 1.42765 9.99355 
399 1 19.9871 0 8.5659 
400 1 21.4148 1.42765 9.99355 
401 1 0 2.8553 8.5659 
402 1 1.42765 4.28295 9.99355 
403 1 2.8553 2.8553 8.5659 
404 1 4.28295 4.28295 9.99355 
405 1 5.7106 2.8553 8.5659 
406 1 7.13825 4.28295 9.99355 
407 1 8.5659 2.8553 8.5659 
408 1 9.99355 4.28295 9.99355 
409 1 11.4212 2.8553 8.5659 
410 1 12.8489 4.28295 9.99355 
411 1 14.2765 2.8553 8.5659 
412 1 15.7042 4.28295 9.99355 
413 1 17.1318 2.8553 8.5659 
414 1 18.5595 4.28295 9.99355 
415 1 19.9871 2.8553 8.5659 
416 1 21.4148 4.28295 9.99355 
417 1 0 5.7106 8.5659 
418 1 1.42765 7.13825 9.99355 
419 1 2.8553 5.7106 8.5659 
420 1 4.28295 7.13825 9.99355 
421 1 5.7106 5.7106 8.5659 
422 1 7.13825 7.13825 9.99355 
423 1 8.5659 5.7106 8.5659 
424 1 9.99355 7.13825 9.99355 
425 1 11.4212 5.7106 8.5659 
426 1 12.8489 7.13825 9.99355 
427 1 14.2765 5.7106 8.5659 
428 1 15.7042 7.13825 9.99355 
429 1 17.1318 5.7106 8.5659 
430 1 18.5595 7.13825 9.99355 
431 1 19.9871 5.7106 8.5659 
432 1 21.4148 7.13825 9.99355 
433 1 0 8.5659 8.5659 
434 1 1.42765 9.99355 9.99355 
435 1 2.8553 8.5659 8.5659 
436 1 4.28295 9.99355 9.99355 
437 1 5.7106 8.5659 8.5659 
438 1 7.13825 9.99355 9.99355 
439 1 8.5659 8.5659 8.5659 
440 1 9.99355 9.99355 9.99355 
441 1 11.4212 8.5659 8.5659 
442 1 12.8489 9.99355 9.99355 
443 1 14.2765 8.5659 8.5659 
444 1 15.7042 9.99355 9.99355 
445 1 17.1318 8.5659 8.5659 
446 1 18.5595 9.99355 9.99355 
447 1 19.9871 8.5659 8.5659 
448 1 21.4148 9.99355 9.99355 
449 1 0 11.4212 8.5659 
450 1 1.42765 12.8489 9.99355 
451 1 2.8553 11.4212 8.5659 
452 1 4.28295 12.8489 9.99355 
453 1 5.7106 11.4212 8.5659 
454 1 7.13825 12.8489 9.99355 
455 1 8.5659 11.4212 8.5659 
456 1 9.99355 12.8489 9.99355 
457 1 11.4212 11.4212 8.5659 
458 1 12.8489 12.8489 9.99355 
459 1 14.2765 11.4212 8.5659 
460 1 15.7042 12.8489 9.99355 
461 1 17.1318 11.4212 8.5659 
462 1 18.5595 12.8489 9.99355 
463 1 19.9871 11.4212 8.5659 
464 1 21.4148 12.8489 9.99355 
465 1 0 14.2765 8.5659 
466 1 1.42765 15.7042 9.99355 
467 1 2.8553 14.2765 8.5659 
468 1 4.28295 15.7042 9.99355 
469 1 5.7106 14.2765 8.5659 
470 1 7.13825 15.7042 9.99355 
471 1 8.5659 14.2765 8.5659 
472 1 9.99355 15.7042 9.99355 
473 1 11.4212 14.2765 8.5659 
474 1 12.8489 15.7042 9.99355 
475 1 14.2765 14.2765 8.5659 
476 1 15.7042 15.7042 9.99355 
477 1 17.1318 14.2765 8.5659 
478 1 18.5595 15.7042 9.99355 
479 1 19.9871 14.2765 8.5659 
480 1 21.4148 15.7042 9.99355 
481 1 0 17.1318 8.5659 
482 1 1.42765 18.5595 9.99355 
483 1 2.8553 17.1318 8.5659 
484 1 4.28295 18.5595 9.99355 
485 1 5.7106 17.1318 8.5659 
486 1 7.13825 18.5595 9.99355 
487 1 8.5659 17.1318 8.5659 
488 1 9.99355 18.5595 9.99355 
489 1 11.4212 17.1318 8.5659 
490 1 12.8489 18.5595 9.99355 
491 1 14.2765 17.1318 8.5659 
492 1 15.7042 18.5595 9.99355 
493 1 17.1318 17.1318 8.5659 
494 1 18.5595 18.5595 9.99355 
495 1 19.9871 17.1318 8.5659 
496 1 21.4148 18.5595 9.99355 
497 1 0 19.9871 8.5659 
498 1 1.42765 21.4148 9.99355 
499 1 2.8553 19.9871 8.5659 
500 1 4.28295 21.4148 9.99355 
501 1 5.7106 19.9871 8.5659 
502 1 7.13825 21.4148 9.99355 
503 1 8.5659 19.9871 8.5659 
504 1 9.99355 21.4148 9.99355 
505 1 11.4212 19.9871 8.5659 
506 1 12.8489 21.4148 9.99355 
507 1 14.2765 19.9871 8.5659 
508 1 15.7042 21.4148 9.99355 
509 1 17.1318 19.9871 8.5659 
510 1 18.5595 21.4148 9.99355 
511 1 19.9871 19.9871 8.5659 
512 1 21.4148 21.4148 9.99355 
513 1 0 0 11.4212 
514 1 1.42765 1.42765 12.8489 
515 1 2.8553 0 11.4212 
516 1 4.28295 1.42765 12.8489 
517 1 5.7106 0 11.4212 
518 1 7.13825 1.42765 12.8489 
519 1 8.5659 0 11.4212 
520 1 9.99355 1.42765 12.8489 
521 1 11.4212 0 11.4212 
522 1 12.8489 1.42765 12.8489 
523 1 14.2765 0 11.4212 
524 1 15.7042 1.42765 12.8489 
525 1 17.1318 0 11.4212 
526 1 18.5595 1.42765 12.8489 
527 1 19.9871 0 11.4212 
528 1 21.4148 1.42765 12.8489 
529 1 0 2.8553 11.4212 
530 1 1.42765 4.28295 12.8489 
531 1 2.8553 2.8553 11.4212 
532 1 4.28295 4.28295 12.8489 
533 1 5.7106 2.8553 11.4212 
534 1 7.13825 4.28295 12.8489 
535 1 8.5659 2.8553 11.4212 
536 1 9.99355 4.28295 12.8489 
537 1 11.4212 2.8553 11.4212 
538 1 12.8489 4.28295 12.8489 
539 1 14.2765 2.8553 11.4212 
540 1 15.7042 4.28295 12.8489 
541 1 17.1318 2.8553 11.4212 
542 1 18.5595 4.28295 12.8489 
543 1 19.9871 2.8553 11.4212 
544 1 21.4148 4.28295 12.8489 
545 1 0 5.7106 11.4212 
546 1 1.42765 7.13825 12.8489 
547 1 2.8553 5.7106 11.4212 
548 1 4.28295 7.13825 12.8489 
549 1 5.7106 5.7106 11.4212 
550 1 7.13825 7.13825 12.8489 
551 1 8.5659 5.7106 11.4212 
552 1 9.99355 7.13825 12.8489 
553 1 11.4212 5.7106 11.4212 
554 1 12.8489 7.13825 12.8489 
555 1 14.2765 5.7106 11.4212 
556 1 15.7042 7.13825 12.8489 
557 1 17.1318 5.7106 11.4212 
558 1 18.5595 7.13825 12.8489 
559 1 19.9871 5.7106 11.4212 
560 1 21.4148 7.13825 12.8489 
561 1 0 8.5659 11.4212 
562 1 1.42765 9.99355 12.8489 
563 1 2.8553 8.5659 11.4212 
564 1 4.28295 9.99355 12.8489 
565 1 5.7106 8.5659 11.4212 
566 1 7.13825 9.99355 12.8489 
567 1 8.5659 8.5659 11.4212 
568 1 9.99355 9.99355 12.8489 
569 1 11.4212 8.5659 11.4212 
570 1 12.8489 9.99355 12.8489 
571 1 14.2765 8.5659 11.4212 
572 1 15.7042 9.99355 12.8489 
573 1 17.1318 8.5659 11.4212 
574 1 18.5595 9.99355 12.8489 
575 1 19.9871 8.5659 11.4212 
576 1 21.4148 9.99355 12.8489 
577 1 0 11.4212 11.4212 
578 1 1.42765 12.8489 12.8489 
579 1 2.8553 11.4212 11.4212 
580 1 4.28295 12.8489 12.8489 
581 1 5.7106 11.4212 11.4212 
582 1 7.13825 12.8489 12.8489 
583 1 8.5659 11.4212 11.4212 
584 1 9.99355 12.8489 12.8489 
585 1 11.4212 11.4212 11.4212 
586 1 12.8489 12.8489 12.8489 
587 1 14.2765 11.4212 11.4212 
588 1 15.7042 12.8489 12.8489 
589 1 17.1318 11.4212 11.4212 
590 1 18.5595 12.8489 12.8489 
591 1 19.9871 11.4212 11.4212 
592 1 21.4148 12.8489 12.8489 
593 1 0 14.2765 11.4212 
594 1 1.42765 15.7042 12.8489 
595 1 2.8553 14.2765 11.4212 
596 1 4.28295 15.7042 12.8489 
597 1 5.7106 14.2765 11.4212 
598 1 7.13825 15.7042 12.8489 
599 1 8.5659 14.2765 11.4212 
600 1 9.99355 15.7042 12.8489 
601 1 11.4212 14.2765 11.4212 
602 1 12.8489 15.7042 12.8489 
603 1 14.2765 14.2765 11.4212 
604 1 15.7042 15.7042 12.8489 
605 1 17.1318 14.2765 11.4212 
606 1 18.5595 15.7042 12.8489 
607 1 19.9871 14.2765 11.4212 
608 1 21.4148 15.7042 12.8489 
609 1 0 17.1318 11.4212 
610 1 1.42765 18.5595 12.8489 
611 1 2.8553 17.1318 11.4212 
612 1 4.28295 18.5595 12.8489 
613 1 5.7106 17.1318 11.4212 
614 1 7.13825 18.5595 12.8489 
615 1 8.5659 17.1318 11.4212 
616 1 9.99355 18.5595 12.8489 
617 1 11.4212 17.1318 11.4212 
618 1 12.8489 18.5595 12.8489 
619 1 14.2765 17.1318 11.4212 
620 1 15.7042 18.5595 12.8489 
621 1 17.1318 17.1318 11.4212 
622 1 18.5595 18.5595 12.8489 
623 1 19.9871 17.1318 11.4212 
624 1 21.4148 18.5595 12.8489 
625 1 0 19.9871 11.4212 
626 1 1.42765 21.4148 12.8489 
627 1 2.8553 19.9871 11.4212 
628 1 4.28295 21.4148 12.8489 
629 1 5.7106 19.9871 11.4212 
630 1 7.13825 21.4148 12.8489 
631 1 8.5659 19.9871 11.4212 
632 1 9.99355 21.4148 12.8489 
633 1 11.4212 19.9871 11.4212 
634 1 12.8489 21.4148 12.8489 
635 1 14.2765 19.9871 11.4212 
636 1 15.7042 21.4148 12.8489 
637 1 17.1318 19.9871 11.4212 
638 1 18.5595 21.4148 12.8489 
639 1 19.9871 19.9871 11.4212 
640 1 21.4148 21.4148 12.8489 
641 1 0 0 14.2765 
642 1 1.42765 1.42765 15.7042 
643 1 2.8553 0 14.2765 
644 1 4.28295 1.42765 15.7042 
645 1 5.7106 0 14.2765 
646 1 7.13825 1.42765 15.7042 
647 1 8.5659 0 14.2765 
648 1 9.99355 1.42765 15.7042 
649 1 11.4212 0 14.2765 
650 1 12.8489 1.42765 15.7042 
651 1 14.2765 0 14.2765 
652 1 15.7042 1.42765 15.7042 
653 1 17.1318 0 14.2765 
654 1 18.5595 1.42765 15.7042 
655 1 19.9871 0 14.2765 
656 1 21.4148 1.42765 15.7042 
657 1 0 2.8553 14.2765 
658 1 1.42765 4.28295 15.7042 
659 1 2.8553 2.8553 14.2765 
660 1 4.28295 4.28295 15.7042 
661 1 5.7106 2.8553 14.2765 
662 1 7.13825 4.28295 15.7042 
663 1 8.5659 2.8553 14.2765 
664 1 9.99355 4.28295 15.7042 
665 1 11.4212 2.8553 14.2765 
666 1 12.8489 4.28295 15.7042 
667 1 14.2765 2.8553 14.2765 
668 1 15.7042 4.28295 15.7042 
669 1 17.1318 2.8553 14.2765 
670 1 18.5595 4.28295 15.7042 
671 1 19.9871 2.8553 14.2765 
672 1 21.4148 4.28295 15.7042 
673 1 0 5.7106 14.2765 
674 1 1.42765 7.13825 15.7042 
675 1 2.8553 5.7106 14.2765 
676 1 4.28295 7.13825 15.7042 
677 1 5.7106 5.7106 14.2765 
678 1 7.13825 7.13825 15.7042 
679 1 8.5659 5.7106 14.2765 
680 1 9.99355 7.13825 15.7042 
681 1 11.4212 5.7106 14.2765 
682 1 12.8489 7.13825 15.7042 
683 1 14.2765 5.7106 14.2765 
684 1 15.7042 7.13825 15.7042 
685 1 17.1318 5.7106 14.2765 
686 1 18.5595 7.13825 15.7042 
687 1 19.9871 5.7106 14.2765 
688 1 21.4148 7.13825 15.7042 
689 1 0 8.5659 14.2765 
690 1 1.42765 9.99355 15.7042 
691 1 2.8553 8.5659 14.2765 
692 1 4.28295 9.99355 15.7042 
693 1 5.7106 8.5659 14.2765 
694 1 7.13825 9.99355 15.7042 
695 1 8.5659 8.5659 14.2765 
696 1 9.99355 9.99355 15.7042 
697 1 11.4212 8.5659 14.2765 
698 1 12.8489 9.99355 15.7042 
699 1 14.2765 8.5659 14.2765 
700 1 15.7042 9.99355 15.7042 
701 1 17.1318 8.5659 14.2765 
702 1 18.5595 9.99355 15.7042 
703 1 19.9871 8.5659 14.2765 
704 1 21.4148 9.99355 15.7042 
705 1 0 11.4212 14.2765 
706 1 1.42765 12.8489 15.7042 
707 1 2.8553 11.4212 14.2765 
708 1 4.28295 12.8489 15.7042 
709 1 5.7106 11.4212 14.2765 
710 1 7.13825 12.8489 15.7042 
711 1 8.5659 11.4212 14.2765 
712 1 9.99355 12.8489 15.7042 
713 1 11.4212 11.4212 14.2765 
714 1 12.8489 12.8489 15.7042 
715 1 14.2765 11.4212 14.2765 
716 1 15.7042 12.8489 15.7042 
717 1 17.1318 11.4212 14.2765 
718 1 18.5595 12.8489 15.7042 
719 1 19.9871 11.4212 14.2765 
720 1 21.4148 12.8489 15.7042 
721 1 0 14.2765 14.2765 
722 1 1.42765 15.7042 15.7042 
723 1 2.8553 14.2765 14.2765 
724 1 4.28295 15.7042 15.7042 
725 1 5.7106 14.2765 14.2765 
726 1 7.13825 15.7042 15.7042 
727 1 8.5659 14.2765 14.2765 
728 1 9.99355 15.7042 15.7042 
729 1 11.4212 14.2765 14.2765 
730 1 12.8489 15.7042 15.7042 
731 1 14.2765 14.2765 14.2765 
732 1 15.7042 15.7042 15.7042 
733 1 17.1318 14.2765 14.2765 
734 1 18.5595 15.7042 15.7042 
735 1 19.9871 14.2765 14.2765 
736 1 21.4148 15.7042 15.7042 
737 1 0 17.1318 14.2765 
738 1 1.42765 18.5595 15.7042 
739 1 2.8553 17.1318 14.2765 
740 1 4.28295 18.5595 15.7042 
741 1 5.7106 17.1318 14.2765 
742 1 7.13825 18.5595 15.7042 
743 1 8.5659 17.1318 14.2765 
744 1 9.99355 18.5595 15.7042 
745 1 11.4212 17.1318 14.2765 
746 1 12.8489 18.5595 15.7042 
747 1 14.2765 17.1318 14.2765 
748 1 15.7042 18.5595 15.7042 
749 1 17.1318 17.1318 14.2765 
750 1 18.5595 18.5595 15.7042 
751 1 19.9871 17.1318 14.2765 
752 1 21.4148 18.5595 15.7042 
753 1 0 19.9871 14.2765 
754 1 1.42765 21.4148 15.7042 
755 1 2.8553 19.9871 14.2765 
756 1 4.28295 21.4148 15.7042 
757 1 5.7106 19.9871 14.2765 
758 1 7.13825 21.4148 15.7042 
759 1 8.5659 19.9871 14.2765 
760 1 9.99355 21.4148 15.7042 
761 1 11.4212 19.9871 14.2765 
762 1 12.8489 21.4148 15.7042 
763 1 14.2765 19.9871 14.2765 
764 1 15.7042 21.4148 15.7042 
765 1 17.1318 19.9871 14.2765 
766 1 18.5595 21.4148 15.7042 
767 1 19.9871 19.9871 14.2765 
768 1 21.4148 21.4148 15.7042 
769 1 0 0 17.1318 
770 1 1.42765 1.42765 18.5595 
771 1 2.8553 0 17.1318 
772 1 4.28295 1.42765 18.5595 
773 1 5.7106 0 17.1318 
774 1 7.13825 1.42765 18.5595 
775 1 8.5659 0 17.1318 
776 1 9.99355 1.42765 18.5595 
777 1 11.4212 0 17.1318 
778 1 12.8489 1.42765 18.5595 
779 1 14.2765 0 17.1318 
780 1 15.7042 1.42765 18.5595 
781 1 17.1318 0 17.1318 
782 1 18.5595 1.42765 18.5595 
783 1 19.9871 0 17.1318 
784 1 21.4148 1.42765 18.5595 
785 1 0 2.8553 17.1318 
786 1 1.42765 4.28295 18.5595 
787 1 2.8553 2.8553 17.1318 
788 1 4.28295 4.28295 18.5595 
789 1 5.7106 2.8553 17.1318 
790 1 7.13825 4.28295 18.5595 
791 1 8.5659 2.8553 17.1318 
792 1 9.99355 4.28295 18.5595 
793 1 11.4212 2.8553 17.1318 
794 1 12.8489 4.28295 18.5595 
795 1 14.2765 2.8553 17.1318 
796 1 15.7042 4.28295 18.5595 
797 1 17.1318 2.8553 17.1318 
798 1 18.5595 4.28295 18.5595 
799 1 19.9871 2.8553 17.1318 
800 1 21.4148 4.28295 18.5595 
801 1 0 5.7106 17.1318 
802 1 1.42765 7.13825 18.5595 
803 1 2.8553 5.7106 17.1318 
804 1 4.28295 7.13825 18.5595 
805 1 5.7106 5.7106 17.1318 
806 1 7.13825 7.13825 18.5595 
807 1 8.5659 5.7106 17.1318 
808 1 9.99355 7.13825 18.5595 
809 1 11.4212 5.7106 17.1318 
810 1 12.8489 7.13825 18.5595 
811 1 14.2765 5.7106 17.1318 
812 1 15.7042 7.13825 18.5595 
813 1 17.1318 5.7106 17.1318 
814 1 18.5595 7.13825 18.5595 
815 1 19.9871 5.7106 17.1318 
816 1 21.4148 7.13825 18.5595 
817 1 0 8.5659 17.1318 
818 1 1.42765 9.99355 18.5595 
819 1 2.8553 8.5659 17.1318 
820 1 4.28295 9.99355 18.5595 
821 1 5.7106 8.5659 17.1318 
822 1 7.13825 9.99355 18.5595 
823 1 8.5659 8.5659 17.1318 
824 1 9.99355 9.99355 18.5595 
825 1 11.4212 8.5659 17.1318 
826 1 12.8489 9.99355 18.5595 
827 1 14.2765 8.5659 17.1318 
828 1 15.7042 9.99355 18.5595 
829 1 17.1318 8.5659 17.1318 
830 1 18.5595 9.99355 18.5595 
831 1 19.9871 8.5659 17.1318 
832 1 21.4148 9.99355 18.5595 
833 1 0 11.4212 17.1318 
834 1 1.42765 12.8489 18.5595 
835 1 2.8553 11.4212 17.1318 
836 1 4.28295 12.8489 18.5595 
837 1 5.7106 11.4212 17.1318 
838 1 7.13825 12.8489 18.5595 
839 1 8.5659 11.4212 17.1318 
840 1 9.99355 12.8489 18.5595 
841 1 11.4212 11.4212 17.1318 
842 1 12.8489 12.8489 18.5595 
843 1 14.2765 11.4212 17.1318 
844 1 15.7042 12.8489 18.5595 
845 1 17.1318 11.4212 17.1318 
846 1 18.5595 12.8489 18.5595 
847 1 19.9871 11.4212 17.1318 
848 1 21.4148 12.8489 18.5595 
849 1 0 14.2765 17.1318 
850 1 1.42765 15.7042 18.5595 
851 1 2.8553 14.2765 17.1318 
852 1 4.28295 15.7042 18.5595 
853 1 5.7106 14.2765 17.1318 
854 1 7.13825 15.7042 18.5595 
855 1 8.5659 14.2765 17.1318 
856 1 9.99355 15.7042 18.5595 
857 1 11.4212 14.2765 17.1318 
858 1 12.8489 15.7042 18.5595 
859 1 14.2765 14.2765 17.1318 
860 1 15.7042 15.7042 18.5595 
861 1 17.1318 14.2765 17.1318 
862 1 18.5595 15.7042 18.5595 
863 1 19.9871 14.2765 17.1318 
864 1 21.4148 15.7042 18.5595 
865 1 0 17.1318 17.1318 
866 1 1.42765 18.5595 18.5595 
867 1 2.8553 17.1318 17.1318 
868 1 4.28295 18.5595 18.5595 
869 1 5.7106 17.1318 17.1318 
870 1 7.13825 18.5595 18.5595 
871 1 8.5659 17.1318 17.1318 
872 1 9.99355 18.5595 18.5595 
873 1 11.4212 17.1318 17.1318 
874 1 12.8489 18.5595 18.5595 
875 1 14.2765 17.1318 17.1318 
876 1 15.7042 18.5595 18.5595 
877 1 17.1318 17.1318 17.1318 
878 1 18.5595 18.5595 18.5595 
879 1 19.9871 17.1318 17.1318 
880 1 21.4148 18.5595 18.5595 
881 1 0 19.9871 17.1318 
882 1 1.42765 21.4148 18.5595 
883 1 2.8553 19.9871 17.1318 
884 1 4.28295 21.4148 18.5595 
885 1 5.7106 19.9871 17.1318 
886 1 7.13825 21.4148 18.5595 
887 1 8.5659 19.9871 17.1318 
888 1 9.99355 21.4148 18.5595 
889 1 11.4212 19.9871 17.1318 
890 1 12.8489 21.4148 18.5595 
891 1 14.2765 19.9871 17.1318 
892 1 15.7042 21.4148 18.5595 
893 1 17.1318 19.9871 17.1318 
894 1 18.5595 21.4148 18.5595 
895 1 19.9871 19.9871 17.1318 
896 1 21.4148 21.4148 18.5595 
897 1 0 0 19.9871 
898 1 1.42765 1.42765 21.4148 
899 1 2.8553 0 19.9871 
900 1 4.28295 1.42765 21.4148 
901 1 5.7106 0 19.9871 
902 1 7.13825 1.42765 21.4148 
903 1 8.5659 0 19.9871 
904 1 9.99355 1.42765 21.4148 
905 1 11.4212 0 19.9871 
906 1 12.8489 1.42765 21.4148 
907 1 14.2765 0 19.9871 
908 1 15.7042 1.42765 21.4148 
909 1 17.1318 0 19.9871 
910 1 18.5595 1.42765 21.4148 
911 1 19.9871 0 19.9871 
912 1 21.4148 1.42765 21.4148 
913 1 0 2.8553 19.9871 
914 1 1.42765 4.28295 21.4148 
915 1 2.8553 2.8553 19.9871 
916 1 4.28295 4.28295 21.4148 
917 1 5.7106 2.8553 19.9871 
918 1 7.13825 4.28295 21.4148 
919 1 8.5659 2.8553 19.9871 
920 1 9.99355 4.28295 21.4148 
921 1 11.4212 2.8553 19.9871 
922 1 12.8489 4.28295 21.4148 
923 1 14.2765 2.8553 19.9871 
924 1 15.7042 4.28295 21.4148 
925 1 17.1318 2.8553 19.9871 
926 1 18.5595 4.28295 21.4148 
927 1 19.9871 2.8553 19.9871 
928 1 21.4148 4.28295 21.4148 
929 1 0 5.7106 19.9871 
930 1 1.42765 7.13825 21.4148 
931 1 2.8553 5.7106 19.9871 
932 1 4.28295 7.13825 21.4148 
933 1 5.7106 5.7106 19.9871 
934 1 7.13825 7.13825 21.4148 
935 1 8.5659 5.7106 19.9871 
936 1 9.99355 7.13825 21.4148 
937 1 11.4212 5.7106 19.9871 
938 1 12.8489 7.13825 21.4148 
939 1 14.2765 5.7106 19.9871 
940 1 15.7042 7.13825 21.4148 
941 1 17.1318 5.7106 19.9871 
942 1 18.5595 7.13825 21.4148 
943 1 19.9871 5.7106 19.9871 
944 1 21.4148 7.13825 21.4148 
945 1 0 8.5659 19.9871 
946 1 1.42765 9.99355 21.4148 
947 1 2.8553 8.5659 19.9871 
948 1 4.28295 9.99355 21.4148 
949 1 5.7106 8.5659 19.9871 
950 1 7.13825 9.99355 21.4148 
951 1 8.5659 8.5659 19.9871 
952 1 9.99355 9.99355 21.4148 
953 1 11.4212 8.5659 19.9871 
954 1 12.8489 9.99355 21.4148 
955 1 14.2765 8.5659 19.9871 
956 1 15.7042 9.99355 21.4148 
957 1 17.1318 8.5659 19.9871 
958 1 18.5595 9.99355 21.4148 
959 1 19.9871 8.5659 19.9871 
960 1 21.4148 9.99355 21.4148 
961 1 0 11.4212 19.9871 
962 1 1.42765 12.8489 21.4148 
963 1 2.8553 11.4212 19.9871 
964 1 4.28295 12.8489 21.4148 
965 1 5.7106 11.4212 19.9871 
966 1 7.13825 12.8489 21.4148 
967 1 8.5659 11.4212 19.9871 
968 1 9.99355 12.8489 21.4148 
969 1 11.4212 11.4212 19.9871 
970 1 12.8489 12.8489 21.4148 
971 1 14.2765 11.4212 19.9871 
972 1 15.7042 12.8489 21.4148 
973 1 17.1318 11.4212 19.9871 
974 1 18.5595 12.8489 21.4148 
975 1 19.9871 11.4212 19.9871 
976 1 21.4148 12.8489 21.4148 
977 1 0 14.2765 19.9871 
978 1 1.42765 15.7042 21.4148 
979 1 2.8553 14.2765 19.9871 
980 1 4.28295 15.7042 21.4148 
981 1 5.7106 14.2765 19.9871 
982 1 7.13825 15.7042 21.4148 
983 1 8.5659 14.2765 19.9871 
984 1 9.99355 15.7042 21.4148 
985 1 11.4212 14.2765 19.9871 
986 1 12.8489 15.7042 21.4148 
987 1 14.2765 14.2765 19.9871 
988 1 15.7042 15.7042 21.4148 
989 1 17.1318 14.2765 19.9871 
990 1 18.5595 15.7042 21.4148 
991 1 19.9871 14.2765 19.9871 
992 1 21.4148 15.7042 21.4148 
993 1 0 17.1318 19.9871 
994 1 1.42765 18.5595 21.4148 
995 1 2.8553 17.1318 19.9871 
996 1 4.28295 18.5595 21.4148 
997 1 5.7106 17.1318 19.9871 
998 1 7.13825 18.5595 21.4148 
999 1 8.5659 17.1318 19.9871 
1000 1 9.99355 18.5595 21.4148 
1001 1 11.4212 17.1318 19.9871 
1002 1 12.8489 18.5595 21.4148 
1003 1 14.2765 17.1318 19.9871 
1004 1 15.7042 18.5595 21.4148 
1005 1 17.1318 17.1318 19.9871 
1006 1 18.5595 18.5595 21.4148 
1007 1 19.9871 17.1318 19.9871 
1008 1 21.4148 18.5595 21.4148 
1009 1 0 19.9871 19.9871 
1010 1 1.42765 21.4148 21.4148 
1011 1 2.8553 19.9871 19.9871 
1012 1 4.28295 21.4148 21.4148 
1013 1 5.7106 19.9871 19.9871 
1014 1 7.13825 21.4148 21.4148 
1015 1 8.5659 19.9871 19.9871 
1016 1 9.99355 21.4148 21.4148 
1017 1 11.4212 19.9871 19.9871 
1018 1 12.8489 21.4148 21.4148 
1019 1 14.2765 19.9871 19.9871 
1020 1 15.7042 21.4148 21.4148 
1021 1 17.1318 19.9871 19.9871 
1022 1 18.5595 21.4148 21.4148 