ITEM: TIMESTEP
0          0
ITEM: NUMBER OF ATOMS
432
ITEM: BOX BOUNDS
0 17.1318
0 17.1318
0 17.1318
ITEM: ATOMS id type x y z
1 1 0 0 0 
2 1 1.42765 1.42765 1.42765 
3 1 2.8553 0 0 
4 1 4.28295 1.42765 1.42765 
5 1 5.7106 0 0 
6 1 7.13825 1.42765 1.42765 
7 1 8.5659 0 0 
8 1 9.99355 1.42765 1.42765 
9 1 11.4212 0 0 
10 1 12.8489 1.42765 1.42765 
11 1 14.2765 0 0 
12 1 15.7042 1.42765 1.42765 
13 1 0 2.8553 0 
14 1 1.42765 4.28295 1.42765 
15 1 2.8553 2.8553 0 
16 1 4.28295 4.28295 1.42765 
17 1 5.7106 2.8553 0 
18 1 7.13825 4.28295 1.42765 
19 1 8.5659 2.8553 0 
20 1 9.99355 4.28295 1.42765 
21 1 11.4212 2.8553 0 
22 1 12.8489 4.28295 1.42765 
23 1 14.2765 2.8553 0 
24 1 15.7042 4.28295 1.42765 
25 1 0 5.7106 0 
26 1 1.42765 7.13825 1.42765 
27 1 2.8553 5.7106 0 
28 1 4.28295 7.13825 1.42765 
29 1 5.7106 5.7106 0 
30 1 7.13825 7.13825 1.42765 
31 1 8.5659 5.7106 0 
32 1 9.99355 7.13825 1.42765 
33 1 11.4212 5.7106 0 
34 1 12.8489 7.13825 1.42765 
35 1 14.2765 5.7106 0 
36 1 15.7042 7.13825 1.42765 
37 1 0 8.5659 0 
38 1 1.42765 9.99355 1.42765 
39 1 2.8553 8.5659 0 
40 1 4.28295 9.99355 1.42765 
41 1 5.7106 8.5659 0 
42 1 7.13825 9.99355 1.42765 
43 1 8.5659 8.5659 0 
44 1 9.99355 9.99355 1.42765 
45 1 11.4212 8.5659 0 
46 1 12.8489 9.99355 1.42765 
47 1 14.2765 8.5659 0 
48 1 15.7042 9.99355 1.42765 
49 1 0 11.4212 0 
50 1 1.42765 12.8489 1.42765 
51 1 2.8553 11.4212 0 
52 1 4.28295 12.8489 1.42765 
53 1 5.7106 11.4212 0 
54 1 7.13825 12.8489 1.42765 
55 1 8.5659 11.4212 0 
56 1 9.99355 12.8489 1.42765 
57 1 11.4212 11.4212 0 
58 1 12.8489 12.8489 1.42765 
59 1 14.2765 11.4212 0 
60 1 15.7042 12.8489 1.42765 
61 1 0 14.2765 0 
62 1 1.42765 15.7042 1.42765 
63 1 2.8553 14.2765 0 
64 1 4.28295 15.7042 1.42765 
65 1 5.7106 14.2765 0 
66 1 7.13825 15.7042 1.42765 
67 1 8.5659 14.2765 0 
68 1 9.99355 15.7042 1.42765 
69 1 11.4212 14.2765 0 
70 1 12.8489 15.7042 1.42765 
71 1 14.2765 14.2765 0 
72 1 15.7042 15.7042 1.42765 
73 1 0 0 2.8553 
74 1 1.42765 1.42765 4.28295 
75 1 2.8553 0 2.8553 
76 1 4.28295 1.42765 4.28295 
77 1 5.7106 0 2.8553 
78 1 7.13825 1.42765 4.28295 
79 1 8.5659 0 2.8553 
80 1 9.99355 1.42765 4.28295 
81 1 11.4212 0 2.8553 
82 1 12.8489 1.42765 4.28295 
83 1 14.2765 0 2.8553 
84 1 15.7042 1.42765 4.28295 
85 1 0 2.8553 2.8553 
86 1 1.42765 4.28295 4.28295 
87 1 2.8553 2.8553 2.8553 
88 1 4.28295 4.28295 4.28295 
89 1 5.7106 2.8553 2.8553 
90 1 7.13825 4.28295 4.28295 
91 1 8.5659 2.8553 2.8553 
92 1 9.99355 4.28295 4.28295 
93 1 11.4212 2.8553 2.8553 
94 1 12.8489 4.28295 4.28295 
95 1 14.2765 2.8553 2.8553 
96 1 15.7042 4.28295 4.28295 
97 1 0 5.7106 2.8553 
98 1 1.42765 7.13825 4.28295 
99 1 2.8553 5.7106 2.8553 
100 1 4.28295 7.13825 4.28295 
101 1 5.7106 5.7106 2.8553 
102 1 7.13825 7.13825 4.28295 
103 1 8.5659 5.7106 2.8553 
104 1 9.99355 7.13825 4.28295 
105 1 11.4212 5.7106 2.8553 
106 1 12.8489 7.13825 4.28295 
107 1 14.2765 5.7106 2.8553 
108 1 15.7042 7.13825 4.28295 
109 1 0 8.5659 2.8553 
110 1 1.42765 9.99355 4.28295 
111 1 2.8553 8.5659 2.8553 
112 1 4.28295 9.99355 4.28295 
113 1 5.7106 8.5659 2.8553 
114 1 7.13825 9.99355 4.28295 
115 1 8.5659 8.5659 2.8553 
116 1 9.99355 9.99355 4.28295 
117 1 11.4212 8.5659 2.8553 
118 1 12.8489 9.99355 4.28295 
119 1 14.2765 8.5659 2.8553 
120 1 15.7042 9.99355 4.28295 
121 1 0 11.4212 2.8553 
122 1 1.42765 12.8489 4.28295 
123 1 2.8553 11.4212 2.8553 
124 1 4.28295 12.8489 4.28295 
125 1 5.7106 11.4212 2.8553 
126 1 7.13825 12.8489 4.28295 
127 1 8.5659 11.4212 2.8553 
128 1 9.99355 12.8489 4.28295 
129 1 11.4212 11.4212 2.8553 
130 1 12.8489 12.8489 4.28295 
131 1 14.2765 11.4212 2.8553 
132 1 15.7042 12.8489 4.28295 
133 1 0 14.2765 2.8553 
134 1 1.42765 15.7042 4.28295 
135 1 2.8553 14.2765 2.8553 
136 1 4.28295 15.7042 4.28295 
137 1 5.7106 14.2765 2.8553 
138 1 7.13825 15.7042 4.28295 
139 1 8.5659 14.2765 2.8553 
140 1 9.99355 15.7042 4.28295 
141 1 11.4212 14.2765 2.8553 
142 1 12.8489 15.7042 4.28295 
143 1 14.2765 14.2765 2.8553 
144 1 15.7042 15.7042 4.28295 
145 1 0 0 5.7106 
146 1 1.42765 1.42765 7.13825 
147 1 2.8553 0 5.7106 
148 1 4.28295 1.42765 7.13825 
149 1 5.7106 0 5.7106 
150 1 7.13825 1.42765 7.13825 
151 1 8.5659 0 5.7106 
152 1 9.99355 1.42765 7.13825 
153 1 11.4212 0 5.7106 
154 1 12.8489 1.42765 7.13825 
155 1 14.2765 0 5.7106 
156 1 15.7042 1.42765 7.13825 
157 1 0 2.8553 5.7106 
158 1 1.42765 4.28295 7.13825 
159 1 2.8553 2.8553 5.7106 
160 1 4.28295 4.28295 7.13825 
161 1 5.7106 2.8553 5.7106 
162 1 7.13825 4.28295 7.13825 
163 1 8.5659 2.8553 5.7106 
164 1 9.99355 4.28295 7.13825 
165 1 11.4212 2.8553 5.7106 
166 1 12.8489 4.28295 7.13825 
167 1 14.2765 2.8553 5.7106 
168 1 15.7042 4.28295 7.13825 
169 1 0 5.7106 5.7106 
170 1 1.42765 7.13825 7.13825 
171 1 2.8553 5.7106 5.7106 
172 1 4.28295 7.13825 7.13825 
173 1 5.7106 5.7106 5.7106 
174 1 7.13825 7.13825 7.13825 
175 1 8.5659 5.7106 5.7106 
176 1 9.99355 7.13825 7.13825 
177 1 11.4212 5.7106 5.7106 
178 1 12.8489 7.13825 7.13825 
179 1 14.2765 5.7106 5.7106 
180 1 15.7042 7.13825 7.13825 
181 1 0 8.5659 5.7106 
182 1 1.42765 9.99355 7.13825 
183 1 2.8553 8.5659 5.7106 
184 1 4.28295 9.99355 7.13825 
185 1 5.7106 8.5659 5.7106 
186 1 7.13825 9.99355 7.13825 
187 1 8.5659 8.5659 5.7106 
188 1 9.99355 9.99355 7.13825 
189 1 11.4212 8.5659 5.7106 
190 1 12.8489 9.99355 7.13825 
191 1 14.2765 8.5659 5.7106 
192 1 15.7042 9.99355 7.13825 
193 1 0 11.4212 5.7106 
194 1 1.42765 12.8489 7.13825 
195 1 2.8553 11.4212 5.7106 
196 1 4.28295 12.8489 7.13825 
197 1 5.7106 11.4212 5.7106 
198 1 7.13825 12.8489 7.13825 
199 1 8.5659 11.4212 5.7106 
200 1 9.99355 12.8489 7.13825 
201 1 11.4212 11.4212 5.7106 
202 1 12.8489 12.8489 7.13825 
203 1 14.2765 11.4212 5.7106 
204 1 15.7042 12.8489 7.13825 
205 1 0 14.2765 5.7106 
206 1 1.42765 15.7042 7.13825 
207 1 2.8553 14.2765 5.7106 
208 1 4.28295 15.7042 7.13825 
209 1 5.7106 14.2765 5.7106 
210 1 7.13825 15.7042 7.13825 
211 1 8.5659 14.2765 5.7106 
212 1 9.99355 15.7042 7.13825 
213 1 11.4212 14.2765 5.7106 
214 1 12.8489 15.7042 7.13825 
215 1 14.2765 14.2765 5.7106 
216 1 15.7042 15.7042 7.13825 
217 1 0 0 8.5659 
218 1 1.42765 1.42765 9.99355 
219 1 2.8553 0 8.5659 
220 1 4.28295 1.42765 9.99355 
221 1 5.7106 0 8.5659 
222 1 7.13825 1.42765 9.99355 
223 1 8.5659 0 8.5659 
224 1 9.99355 1.42765 9.99355 
225 1 11.4212 0 8.5659 
226 1 12.8489 1.42765 9.99355 
227 1 14.2765 0 8.5659 
228 1 15.7042 1.42765 9.99355 
229 1 0 2.8553 8.5659 
230 1 1.42765 4.28295 9.99355 
231 1 2.8553 2.8553 8.5659 
232 1 4.28295 4.28295 9.99355 
233 1 5.7106 2.8553 8.5659 
234 1 7.13825 4.28295 9.99355 
235 1 8.5659 2.8553 8.5659 
236 1 9.99355 4.28295 9.99355 
237 1 11.4212 2.8553 8.5659 
238 1 12.8489 4.28295 9.99355 
239 1 14.2765 2.8553 8.5659 
240 1 15.7042 4.28295 9.99355 
241 1 0 5.7106 8.5659 
242 1 1.42765 7.13825 9.99355 
243 1 2.8553 5.7106 8.5659 
244 1 4.28295 7.13825 9.99355 
245 1 5.7106 5.7106 8.5659 
246 1 7.13825 7.13825 9.99355 
247 1 8.5659 5.7106 8.5659 
248 1 9.99355 7.13825 9.99355 
249 1 11.4212 5.7106 8.5659 
250 1 12.8489 7.13825 9.99355 
251 1 14.2765 5.7106 8.5659 
252 1 15.7042 7.13825 9.99355 
253 1 0 8.5659 8.5659 
254 1 1.42765 9.99355 9.99355 
255 1 2.8553 8.5659 8.5659 
256 1 4.28295 9.99355 9.99355 
257 1 5.7106 8.5659 8.5659 
258 1 7.13825 9.99355 9.99355 
259 1 8.5659 8.5659 8.5659 
260 1 9.99355 9.99355 9.99355 
261 1 11.4212 8.5659 8.5659 
262 1 12.8489 9.99355 9.99355 
263 1 14.2765 8.5659 8.5659 
264 1 15.7042 9.99355 9.99355 
265 1 0 11.4212 8.5659 
266 1 1.42765 12.8489 9.99355 
267 1 2.8553 11.4212 8.5659 
268 1 4.28295 12.8489 9.99355 
269 1 5.7106 11.4212 8.5659 
270 1 7.13825 12.8489 9.99355 
271 1 8.5659 11.4212 8.5659 
272 1 9.99355 12.8489 9.99355 
273 1 11.4212 11.4212 8.5659 
274 1 12.8489 12.8489 9.99355 
275 1 14.2765 11.4212 8.5659 
276 1 15.7042 12.8489 9.99355 
277 1 0 14.2765 8.5659 
278 1 1.42765 15.7042 9.99355 
279 1 2.8553 14.2765 8.5659 
280 1 4.28295 15.7042 9.99355 
281 1 5.7106 14.2765 8.5659 
282 1 7.13825 15.7042 9.99355 
283 1 8.5659 14.2765 8.5659 
284 1 9.99355 15.7042 9.99355 
285 1 11.4212 14.2765 8.5659 
286 1 12.8489 15.7042 9.99355 
287 1 14.2765 14.2765 8.5659 
288 1 15.7042 15.7042 9.99355 
289 1 0 0 11.4212 
290 1 1.42765 1.42765 12.8489 
291 1 2.8553 0 11.4212 
292 1 4.28295 1.42765 12.8489 
293 1 5.7106 0 11.4212 
294 1 7.13825 1.42765 12.8489 
295 1 8.5659 0 11.4212 
296 1 9.99355 1.42765 12.8489 
297 1 11.4212 0 11.4212 
298 1 12.8489 1.42765 12.8489 
299 1 14.2765 0 11.4212 
300 1 15.7042 1.42765 12.8489 
301 1 0 2.8553 11.4212 
302 1 1.42765 4.28295 12.8489 
303 1 2.8553 2.8553 11.4212 
304 1 4.28295 4.28295 12.8489 
305 1 5.7106 2.8553 11.4212 
306 1 7.13825 4.28295 12.8489 
307 1 8.5659 2.8553 11.4212 
308 1 9.99355 4.28295 12.8489 
309 1 11.4212 2.8553 11.4212 
310 1 12.8489 4.28295 12.8489 
311 1 14.2765 2.8553 11.4212 
312 1 15.7042 4.28295 12.8489 
313 1 0 5.7106 11.4212 
314 1 1.42765 7.13825 12.8489 
315 1 2.8553 5.7106 11.4212 
316 1 4.28295 7.13825 12.8489 
317 1 5.7106 5.7106 11.4212 
318 1 7.13825 7.13825 12.8489 
319 1 8.5659 5.7106 11.4212 
320 1 9.99355 7.13825 12.8489 
321 1 11.4212 5.7106 11.4212 
322 1 12.8489 7.13825 12.8489 
323 1 14.2765 5.7106 11.4212 
324 1 15.7042 7.13825 12.8489 
325 1 0 8.5659 11.4212 
326 1 1.42765 9.99355 12.8489 
327 1 2.8553 8.5659 11.4212 
328 1 4.28295 9.99355 12.8489 
329 1 5.7106 8.5659 11.4212 
330 1 7.13825 9.99355 12.8489 
331 1 8.5659 8.5659 11.4212 
332 1 9.99355 9.99355 12.8489 
333 1 11.4212 8.5659 11.4212 
334 1 12.8489 9.99355 12.8489 
335 1 14.2765 8.5659 11.4212 
336 1 15.7042 9.99355 12.8489 
337 1 0 11.4212 11.4212 
338 1 1.42765 12.8489 12.8489 
339 1 2.8553 11.4212 11.4212 
340 1 4.28295 12.8489 12.8489 
341 1 5.7106 11.4212 11.4212 
342 1 7.13825 12.8489 12.8489 
343 1 8.5659 11.4212 11.4212 
344 1 9.99355 12.8489 12.8489 
345 1 11.4212 11.4212 11.4212 
346 1 12.8489 12.8489 12.8489 
347 1 14.2765 11.4212 11.4212 
348 1 15.7042 12.8489 12.8489 
349 1 0 14.2765 11.4212 
350 1 1.42765 15.7042 12.8489 
351 1 2.8553 14.2765 11.4212 
352 1 4.28295 15.7042 12.8489 
353 1 5.7106 14.2765 11.4212 
354 1 7.13825 15.7042 12.8489 
355 1 8.5659 14.2765 11.4212 
356 1 9.99355 15.7042 12.8489 
357 1 11.4212 14.2765 11.4212 
358 1 12.8489 15.7042 12.8489 
359 1 14.2765 14.2765 11.4212 
360 1 15.7042 15.7042 12.8489 
361 1 0 0 14.2765 
362 1 1.42765 1.42765 15.7042 
363 1 2.8553 0 14.2765 
364 1 4.28295 1.42765 15.7042 
365 1 5.7106 0 14.2765 
366 1 7.13825 1.42765 15.7042 
367 1 8.5659 0 14.2765 
368 1 9.99355 1.42765 15.7042 
369 1 11.4212 0 14.2765 
370 1 12.8489 1.42765 15.7042 
371 1 14.2765 0 14.2765 
372 1 15.7042 1.42765 15.7042 
373 1 0 2.8553 14.2765 
374 1 1.42765 4.28295 15.7042 
375 1 2.8553 2.8553 14.2765 
376 1 4.28295 4.28295 15.7042 
377 1 5.7106 2.8553 14.2765 
378 1 7.13825 4.28295 15.7042 
379 1 8.5659 2.8553 14.2765 
380 1 9.99355 4.28295 15.7042 
381 1 11.4212 2.8553 14.2765 
382 1 12.8489 4.28295 15.7042 
383 1 14.2765 2.8553 14.2765 
384 1 15.7042 4.28295 15.7042 
385 1 0 5.7106 14.2765 
386 1 1.42765 7.13825 15.7042 
387 1 2.8553 5.7106 14.2765 
388 1 4.28295 7.13825 15.7042 
389 1 5.7106 5.7106 14.2765 
390 1 7.13825 7.13825 15.7042 
391 1 8.5659 5.7106 14.2765 
392 1 9.99355 7.13825 15.7042 
393 1 11.4212 5.7106 14.2765 
394 1 12.8489 7.13825 15.7042 
395 1 14.2765 5.7106 14.2765 
396 1 15.7042 7.13825 15.7042 
397 1 0 8.5659 14.2765 
398 1 1.42765 9.99355 15.7042 
399 1 2.8553 8.5659 14.2765 
400 1 4.28295 9.99355 15.7042 
401 1 5.7106 8.5659 14.2765 
402 1 7.13825 9.99355 15.7042 
403 1 8.5659 8.5659 14.2765 
404 1 9.99355 9.99355 15.7042 
405 1 11.4212 8.5659 14.2765 
406 1 12.8489 9.99355 15.7042 
407 1 14.2765 8.5659 14.2765 
408 1 15.7042 9.99355 15.7042 
409 1 0 11.4212 14.2765 
410 1 1.42765 12.8489 15.7042 
411 1 2.8553 11.4212 14.2765 
412 1 4.28295 12.8489 15.7042 
413 1 5.7106 11.4212 14.2765 
414 1 7.13825 12.8489 15.7042 
415 1 8.5659 11.4212 14.2765 
416 1 9.99355 12.8489 15.7042 
417 1 11.4212 11.4212 14.2765 
418 1 12.8489 12.8489 15.7042 
419 1 14.2765 11.4212 14.2765 
420 1 15.7042 12.8489 15.7042 
421 1 0 14.2765 14.2765 
422 1 1.42765 15.7042 15.7042 
423 1 2.8553 14.2765 14.2765 
424 1 4.28295 15.7042 15.7042 
425 1 5.7106 14.2765 14.2765 
426 1 7.13825 15.7042 15.7042 
427 1 8.5659 14.2765 14.2765 
428 1 9.99355 15.7042 15.7042 
429 1 11.4212 14.2765 14.2765 
430 1 12.8489 15.7042 15.7042 
431 1 14.2765 14.2765 14.2765 
432 1 15.7042 15.7042 15.7042 
ITEM: TIMESTEP
1          1
ITEM: NUMBER OF ATOMS
432
ITEM: BOX BOUNDS
0 17.1318
0 17.1318
0 17.1318
ITEM: ATOMS id type x y z
1 1 0.00694917 0.00471435 0.00414739 
2 1 1.42765 1.42765 1.42765 
3 1 2.85383 0.00056215 17.1299 
4 1 4.28525 1.4285 1.42867 
5 1 5.7106 0 0 
6 1 7.13825 1.42765 1.42765 
7 1 8.5615 17.1298 17.1251 
8 1 9.99088 1.424 1.43238 
9 1 11.4234 0.00134908 0.00395317 
10 1 12.848 1.43021 1.4248 
11 1 14.2765 0 0 
12 1 15.7065 1.43204 1.42806 
13 1 17.1289 2.85377 0.00128972 
14 1 1.42765 4.28295 1.42765 
15 1 2.84965 2.85339 0.00927851 
16 1 4.27341 4.2823 1.43513 
17 1 5.7106 2.8553 0 
18 1 7.14479 4.28386 1.42089 
19 1 8.56513 2.85125 17.1313 
20 1 9.99886 4.28749 1.4285 
21 1 11.4261 2.85118 0.00188938 
22 1 12.846 4.28765 1.43183 
23 1 14.2765 2.8553 0 
24 1 15.7017 4.28096 1.42534 
25 1 0 5.7106 0 
26 1 1.42765 7.13825 1.42765 
27 1 2.85222 5.70863 0.0026549 
28 1 4.28295 7.13825 1.42765 
29 1 5.70285 5.7191 0.0102802 
30 1 7.14063 7.13872 1.43596 
31 1 8.56847 5.70956 0.00194666 
32 1 9.99246 7.13844 1.42544 
33 1 11.4212 5.7106 0 
34 1 12.8443 7.14777 1.42927 
35 1 14.2765 5.7106 0 
36 1 15.7042 7.13825 1.42765 
37 1 0.00197115 8.57502 0.00613958 
38 1 1.4269 9.99604 1.42261 
39 1 2.85844 8.56696 17.1302 
40 1 4.27926 9.99565 1.42584 
41 1 5.71388 8.56758 17.1311 
42 1 7.13573 9.99222 1.42735 
43 1 8.5659 8.5659 0 
44 1 9.9958 9.98879 1.42194 
45 1 11.4249 8.56561 17.1316 
46 1 12.8496 10.0051 1.41679 
47 1 14.2765 8.5659 0 
48 1 15.7071 9.99697 1.43128 
49 1 17.1316 11.4237 0.00188567 
50 1 1.42765 12.8489 1.42765 
51 1 2.85998 11.4193 0.00399737 
52 1 4.28295 12.8489 1.42765 
53 1 5.71323 11.423 17.1254 
54 1 7.13825 12.8489 1.42765 
55 1 8.56569 11.4251 1.17197e-05 
56 1 9.99556 12.8477 1.42956 
57 1 11.4165 11.4221 17.1279 
58 1 12.8502 12.8464 1.43261 
59 1 14.2773 11.4207 17.1313 
60 1 15.7076 12.8506 1.42546 
61 1 0 14.2765 0 
62 1 1.42871 15.6914 1.42178 
63 1 2.85132 14.2776 0.00228252 
64 1 4.28295 15.7042 1.42765 
65 1 5.71335 14.2741 17.128 
66 1 7.13825 15.7042 1.42765 
67 1 8.5659 14.2765 0 
68 1 9.98576 15.7039 1.42871 
69 1 11.4212 14.2765 0 
70 1 12.8489 15.7042 1.42765 
71 1 14.2744 14.2777 0.00138875 
72 1 15.7031 15.7155 1.42775 
73 1 0 0 2.8553 
74 1 1.42594 1.42682 4.27811 
75 1 2.8553 0 2.8553 
76 1 4.27616 1.43235 4.28364 
77 1 5.70812 0.000634716 2.86296 
78 1 7.13698 1.42496 4.28542 
79 1 8.56303 17.1287 2.85091 
80 1 9.99355 1.42765 4.28295 
81 1 11.4212 0 2.8553 
82 1 12.852 1.42921 4.28313 
83 1 14.2787 17.1273 2.85433 
84 1 15.7042 1.42765 4.28295 
85 1 0.00404237 2.85547 2.85584 
86 1 1.42765 4.28295 4.28295 
87 1 2.8566 2.85495 2.85129 
88 1 4.28098 4.28331 4.2802 
89 1 5.7106 2.8553 2.8553 
90 1 7.13825 4.28295 4.28295 
91 1 8.56576 2.85614 2.85582 
92 1 9.98431 4.28081 4.29138 
93 1 11.4212 2.8553 2.8553 
94 1 12.8489 4.28295 4.28295 
95 1 14.2818 2.86057 2.86104 
96 1 15.6981 4.27506 4.28028 
97 1 0.0031895 5.70657 2.85475 
98 1 1.42927 7.14093 4.2861 
99 1 2.85451 5.71188 2.85396 
100 1 4.2827 7.1413 4.28497 
101 1 5.71068 5.7116 2.85681 
102 1 7.13681 7.13435 4.2789 
103 1 8.56479 5.71183 2.85958 
104 1 9.99695 7.14023 4.28532 
105 1 11.4212 5.7106 2.8553 
106 1 12.8498 7.13663 4.27872 
107 1 14.2765 5.7106 2.8553 
108 1 15.7042 7.13825 4.28295 
109 1 17.1299 8.56443 2.8567 
110 1 1.42719 9.99306 4.28591 
111 1 2.8553 8.5659 2.8553 
112 1 4.28295 9.99355 4.28295 
113 1 5.71373 8.56436 2.85455 
114 1 7.13825 9.99355 4.28295 
115 1 8.56328 8.56315 2.86007 
116 1 9.99355 9.99355 4.28295 
117 1 11.4212 8.5659 2.8553 
118 1 12.8489 9.99355 4.28295 
119 1 14.2748 8.56708 2.84755 
120 1 15.7038 9.99334 4.2817 
121 1 0 11.4212 2.8553 
122 1 1.42765 12.8489 4.28295 
123 1 2.85876 11.4204 2.85979 
124 1 4.28177 12.8568 4.28357 
125 1 5.70562 11.4195 2.8594 
126 1 7.14392 12.8467 4.28645 
127 1 8.5659 11.4212 2.8553 
128 1 9.99385 12.8489 4.28533 
129 1 11.4183 11.4191 2.85774 
130 1 12.8504 12.8476 4.28137 
131 1 14.2746 11.4205 2.85239 
132 1 15.7042 12.8489 4.28295 
133 1 0.00313944 14.2811 2.85328 
134 1 1.42765 15.7042 4.28295 
135 1 2.8553 14.2765 2.8553 
136 1 4.28295 15.7042 4.28295 
137 1 5.7106 14.2765 2.8553 
138 1 7.14004 15.7083 4.2796 
139 1 8.5659 14.2765 2.8553 
140 1 9.99355 15.7042 4.28295 
141 1 11.42 14.2818 2.85957 
142 1 12.8489 15.7042 4.28295 
143 1 14.2718 14.2738 2.85357 
144 1 15.7037 15.7077 4.27962 
145 1 0.00390295 17.1287 5.70755 
146 1 1.43071 1.42376 7.14177 
147 1 2.84858 17.1305 5.71764 
148 1 4.28295 1.42765 7.13825 
149 1 5.71426 17.1287 5.70919 
150 1 7.13825 1.42765 7.13825 
151 1 8.5659 0 5.7106 
152 1 9.99188 1.43172 7.14255 
153 1 11.4212 0 5.7106 
154 1 12.8462 1.42778 7.1397 
155 1 14.2726 17.1268 5.70756 
156 1 15.7042 1.42765 7.13825 
157 1 0 2.8553 5.7106 
158 1 1.42486 4.28648 7.1367 
159 1 2.85286 2.8543 5.70859 
160 1 4.28295 4.28295 7.13825 
161 1 5.7106 2.8553 5.7106 
162 1 7.13825 4.28295 7.13825 
163 1 8.5659 2.8553 5.7106 
164 1 9.99273 4.28276 7.13798 
165 1 11.419 2.84982 5.70496 
166 1 12.8506 4.28638 7.13814 
167 1 14.2727 2.85952 5.71171 
168 1 15.7057 4.2812 7.14465 
169 1 0 5.7106 5.7106 
170 1 1.43127 7.13209 7.14271 
171 1 2.85743 5.71313 5.71387 
172 1 4.28295 7.13825 7.13825 
173 1 5.71108 5.70166 5.70858 
174 1 7.13473 7.13706 7.13454 
175 1 8.5659 5.7106 5.7106 
176 1 9.99263 7.1338 7.13451 
177 1 11.4212 5.7106 5.7106 
178 1 12.8538 7.13511 7.14025 
179 1 14.2765 5.7106 5.7106 
180 1 15.7028 7.13328 7.13591 
181 1 17.128 8.56171 5.70874 
182 1 1.4258 9.99051 7.14324 
183 1 2.8553 8.5659 5.7106 
184 1 4.2829 10.0011 7.13961 
185 1 5.71803 8.57073 5.71002 
186 1 7.13968 9.99831 7.13838 
187 1 8.5659 8.5659 5.7106 
188 1 9.99355 9.99355 7.13825 
189 1 11.4226 8.56198 5.7072 
190 1 12.8489 9.99355 7.13825 
191 1 14.2765 8.5659 5.7106 
192 1 15.7042 9.99355 7.13825 
193 1 0 11.4212 5.7106 
194 1 1.42698 12.8454 7.14244 
195 1 2.8553 11.4212 5.7106 
196 1 4.28242 12.8521 7.13763 
197 1 5.71362 11.4207 5.70615 
198 1 7.13411 12.8459 7.14061 
199 1 8.56433 11.4218 5.71268 
200 1 9.99091 12.8456 7.13295 
201 1 11.4212 11.4212 5.7106 
202 1 12.8489 12.8489 7.13825 
203 1 14.2748 11.4243 5.7082 
204 1 15.7083 12.8528 7.13547 
205 1 0 14.2765 5.7106 
206 1 1.42765 15.7042 7.13825 
207 1 2.85677 14.2792 5.71415 
208 1 4.28295 15.7042 7.13825 
209 1 5.71254 14.2753 5.71298 
210 1 7.13656 15.701 7.13499 
211 1 8.56312 14.2719 5.71048 
212 1 9.99216 15.709 7.13542 
213 1 11.4212 14.2765 5.7106 
214 1 12.8535 15.704 7.13477 
215 1 14.2765 14.2765 5.7106 
216 1 15.7084 15.7007 7.13416 
217 1 0.00193728 17.1317 8.56105 
218 1 1.42765 1.42765 9.99355 
219 1 2.8553 0 8.5659 
220 1 4.28312 1.42673 9.99765 
221 1 5.70633 0.0040053 8.57303 
222 1 7.13641 1.42229 9.99517 
223 1 8.5659 0 8.5659 
224 1 9.99355 1.42765 9.99355 
225 1 11.4212 0 8.5659 
226 1 12.8489 1.42765 9.99355 
227 1 14.2781 0.00451307 8.56706 
228 1 15.7042 1.42765 9.99355 
229 1 0 2.8553 8.5659 
230 1 1.42765 4.28295 9.99355 
231 1 2.85831 2.85135 8.56401 
232 1 4.28295 4.28295 9.99355 
233 1 5.71462 2.85333 8.56385 
234 1 7.13825 4.28295 9.99355 
235 1 8.56663 2.85531 8.56432 
236 1 9.99355 4.28295 9.99355 
237 1 11.4212 2.8553 8.5659 
238 1 12.8456 4.27987 9.99145 
239 1 14.2765 2.8553 8.5659 
240 1 15.7042 4.28295 9.99355 
241 1 0 5.7106 8.5659 
242 1 1.42694 7.12995 9.98897 
243 1 2.85159 5.71117 8.56635 
244 1 4.28839 7.13438 9.9887 
245 1 5.7106 5.7106 8.5659 
246 1 7.13825 7.13825 9.99355 
247 1 8.56672 5.71284 8.56729 
248 1 9.99493 7.14081 9.99337 
249 1 11.4243 5.71385 8.567 
250 1 12.8489 7.13825 9.99355 
251 1 14.2765 5.7106 8.5659 
252 1 15.7006 7.14188 9.9934 
253 1 0 8.5659 8.5659 
254 1 1.4253 9.98859 9.99256 
255 1 2.8553 8.5659 8.5659 
256 1 4.2874 10.0009 9.99476 
257 1 5.70842 8.56565 8.56588 
258 1 7.14131 9.98885 9.99783 
259 1 8.56933 8.56173 8.564 
260 1 9.99628 9.99435 9.99593 
261 1 11.4245 8.56632 8.56332 
262 1 12.8514 9.98195 9.99445 
263 1 14.2785 8.56464 8.57025 
264 1 15.6998 9.98914 9.99249 
265 1 17.129 11.4218 8.5629 
266 1 1.4366 12.8522 9.99377 
267 1 2.85647 11.4196 8.56388 
268 1 4.28295 12.8489 9.99355 
269 1 5.7106 11.4212 8.5659 
270 1 7.13345 12.8494 9.99382 
271 1 8.5659 11.4212 8.5659 
272 1 9.99038 12.8538 9.99518 
273 1 11.4168 11.4172 8.57083 
274 1 12.8489 12.8489 9.99355 
275 1 14.2812 11.4246 8.5611 
276 1 15.698 12.8508 10.0002 
277 1 8.156e-05 14.2773 8.56441 
278 1 1.42765 15.7042 9.99355 
279 1 2.85653 14.2797 8.56386 
280 1 4.28494 15.6996 9.99312 
281 1 5.70703 14.2729 8.56357 
282 1 7.14183 15.7059 9.99578 
283 1 8.5659 14.2765 8.5659 
284 1 9.98968 15.7042 9.98863 
285 1 11.4212 14.2765 8.5659 
286 1 12.8428 15.6939 9.9945 
287 1 14.2811 14.2748 8.56326 
288 1 15.7084 15.7015 9.99081 
289 1 0.0020103 0.00705117 11.4202 
290 1 1.42704 1.42922 12.853 
291 1 2.85281 0.000207399 11.417 
292 1 4.28295 1.42765 12.8489 
293 1 5.7106 0 11.4212 
294 1 7.13371 1.43113 12.8522 
295 1 8.56507 0.000764433 11.419 
296 1 9.99238 1.427 12.8466 
297 1 11.4212 0 11.4212 
298 1 12.8489 1.42765 12.8489 
299 1 14.2748 0.00763243 11.4294 
300 1 15.7042 1.42765 12.8489 
301 1 17.1266 2.86245 11.4194 
302 1 1.42653 4.2804 12.8498 
303 1 2.85189 2.85831 11.4165 
304 1 4.28446 4.28444 12.8503 
305 1 5.70669 2.84921 11.4227 
306 1 7.13984 4.28474 12.8499 
307 1 8.5659 2.8553 11.4212 
308 1 9.99048 4.27818 12.8509 
309 1 11.4161 2.84235 11.4269 
310 1 12.8489 4.28295 12.8489 
311 1 14.2739 2.85673 11.4245 
312 1 15.6989 4.27906 12.8561 
313 1 0.000899798 5.71351 11.4248 
314 1 1.42765 7.13825 12.8489 
315 1 2.8595 5.71067 11.4177 
316 1 4.27221 7.14789 12.8555 
317 1 5.71177 5.70589 11.4234 
318 1 7.13825 7.13825 12.8489 
319 1 8.5659 5.7106 11.4212 
320 1 9.99059 7.13033 12.8471 
321 1 11.4214 5.71413 11.4186 
322 1 12.8489 7.13825 12.8489 
323 1 14.2765 5.70569 11.4214 
324 1 15.7067 7.14123 12.8461 
325 1 17.1292 8.56401 11.4187 
326 1 1.4365 9.99548 12.8537 
327 1 2.85063 8.56864 11.4164 
328 1 4.28426 9.9877 12.8441 
329 1 5.7106 8.5659 11.4212 
330 1 7.14409 9.99 12.8484 
331 1 8.56597 8.5666 11.4252 
332 1 9.98884 9.99056 12.853 
333 1 11.4212 8.5659 11.4212 
334 1 12.8494 9.99177 12.849 
335 1 14.2796 8.5621 11.4201 
336 1 15.7042 9.99355 12.8489 
337 1 0.00110278 11.4257 11.4201 
338 1 1.42659 12.8468 12.8509 
339 1 2.8553 11.4212 11.4212 
340 1 4.28295 12.8489 12.8489 
341 1 5.7177 11.4209 11.4161 
342 1 7.13471 12.8517 12.8528 
343 1 8.56684 11.4196 11.4225 
344 1 9.99426 12.8461 12.8442 
345 1 11.4225 11.4213 11.4166 
346 1 12.8519 12.8448 12.8496 
347 1 14.273 11.4235 11.4171 
348 1 15.7024 12.8466 12.8482 
349 1 0.00189191 14.2738 11.421 
350 1 1.42361 15.702 12.8445 
351 1 2.8553 14.2765 11.4212 
352 1 4.28295 15.7042 12.8489 
353 1 5.7106 14.2765 11.4212 
354 1 7.13842 15.7039 12.846 
355 1 8.5622 14.2812 11.4206 
356 1 9.99355 15.7042 12.8489 
357 1 11.4166 14.2765 11.4253 
358 1 12.8448 15.7045 12.8441 
359 1 14.2765 14.2765 11.4212 
360 1 15.6997 15.698 12.8467 
361 1 0 0 14.2765 
362 1 1.42701 1.42915 15.7052 
363 1 2.85213 0.000198129 14.2765 
364 1 4.28295 1.42765 15.7042 
365 1 5.71031 0.00458951 14.2724 
366 1 7.14135 1.43049 15.7095 
367 1 8.56165 0.00237535 14.279 
368 1 9.98393 1.4274 15.6987 
369 1 11.4212 0 14.2765 
370 1 12.8467 1.42575 15.7053 
371 1 14.2735 17.1289 14.2753 
372 1 15.7042 1.42765 15.7042 
373 1 17.1295 2.85492 14.2759 
374 1 1.42765 4.28295 15.7042 
375 1 2.8553 2.8553 14.2765 
376 1 4.28087 4.2821 15.6987 
377 1 5.7106 2.8553 14.2765 
378 1 7.13825 4.28295 15.7042 
379 1 8.5659 2.8553 14.2765 
380 1 9.99241 4.28142 15.7087 
381 1 11.4258 2.85089 14.2813 
382 1 12.8528 4.28428 15.7118 
383 1 14.2776 2.86191 14.2693 
384 1 15.702 4.2843 15.7009 
385 1 0 5.7106 14.2765 
386 1 1.42765 7.14106 15.6994 
387 1 2.8552 5.70967 14.279 
388 1 4.28265 7.13872 15.7019 
389 1 5.7106 5.7106 14.2765 
390 1 7.13825 7.13825 15.7042 
391 1 8.56459 5.71511 14.2724 
392 1 9.99261 7.13894 15.7093 
393 1 11.4208 5.70573 14.2719 
394 1 12.8441 7.13783 15.7068 
395 1 14.2765 5.7106 14.2765 
396 1 15.7002 7.13605 15.6988 
397 1 0 8.5659 14.2765 
398 1 1.42765 9.99355 15.7042 
399 1 2.8553 8.5659 14.2765 
400 1 4.28295 9.99355 15.7042 
401 1 5.71495 8.56983 14.2806 
402 1 7.13825 9.99355 15.7042 
403 1 8.56127 8.56751 14.2751 
404 1 9.99355 9.99355 15.7042 
405 1 11.4167 8.56509 14.2757 
406 1 12.8489 9.99355 15.7042 
407 1 14.2757 8.56895 14.2768 
408 1 15.7064 9.99392 15.7023 
409 1 0.00393633 11.4192 14.2808 
410 1 1.43125 12.8528 15.7064 
411 1 2.85896 11.4219 14.2711 
412 1 4.28381 12.8563 15.7013 
413 1 5.7106 11.4212 14.2765 
414 1 7.13664 12.8479 15.7028 
415 1 8.56244 11.4173 14.2743 
416 1 9.99661 12.8457 15.7033 
417 1 11.4212 11.4212 14.2765 
418 1 12.8489 12.8489 15.7042 
419 1 14.2778 11.4182 14.272 
420 1 15.7042 12.8489 15.7042 
421 1 0 14.2765 14.2765 
422 1 1.4273 15.6992 15.7017 
423 1 2.85092 14.2714 14.2671 
424 1 4.28295 15.7042 15.7042 
425 1 5.7106 14.2765 14.2765 
426 1 7.14032 15.7019 15.7082 
427 1 8.5659 14.2765 14.2765 
428 1 9.99355 15.7042 15.7042 
429 1 11.4212 14.2765 14.2765 
430 1 12.8489 15.7042 15.7042 
431 1 14.2744 14.269 14.2743 
432 1 15.701 15.7083 15.713 
